% Model:              Tmax38_Nu_0.9.mph
% Version:            COMSOL 5.2.0.166
% Date:               Jun 16 2017, 11:00
% Dimension:          2
% Nodes:              4413
% Expressions:        5
% Description:        Velocity field, r component, Velocity field, z component, Temperature, Dependent variable S, Vorticity field, phi component
% Length unit:        m
% r                       z                        u @ t=0.17               w @ t=0.17               T @ t=0.17               S @ t=0.17               spf.vorticityphi @ t=0.17
0.4799999999999999        0                        0                        0                        -0.2875923900652406      0.9878780407907641       -1787.8860424233594
0.5                       0                        0                        0                        -0.28827670522600374     0.9875354973755953       -1558.425582444734
0.4800000000000001        0.0041666666666666675    -7.340343430832084       -0.21156589774558107     -0.2876032429463567      0.9876975558124403       -1751.6620480012457
0.5                       0.004166666666666665     -6.707665724439419       0.15004544534997225      -0.28828765617265034     0.9873410707483228       -1690.3152338886318
0.45999999999999985       0                        0                        0                        -0.28688912474565603     0.9881152534160218       -2671.6776841522833
0.45999999999999996       0.004166666666666668     -10.48735083318667       -0.33439493560405925     -0.28690291902359055     0.9880508705903652       -2363.58773607701
0.4399999999999998        0                        0                        0                        -0.2860519457854308      0.9882402078785848       -3470.344873411539
0.43999999999999984       0.004166666666666669     -13.420008378326273      -0.07950765827761075     -0.2860706309333114      0.9882829035226273       -2939.836399803007
0.4199999999999997        0                        0                        0                        -0.28501780596126935     0.988296613797516        -3319.7332718813623
0.4199999999999997        0.0041666666666666675    -12.920258681239916      0.3198908416269269       -0.28503934360743255     0.9883938360046249       -2859.0382924353808
0.39999999999999963       0                        0                        0                        -0.2838650364712436      0.9883243814645832       -2476.8756079069235
0.3999999999999996        0.0041666666666666675    -9.809099148453603       0.3690463812407333       -0.2838847632113982      0.9884484381509758       -2244.7719630491674
0.37999999999999956       0                        0                        0                        -0.2827596642414388      0.9883438403077579       -1931.9272193045485
0.37999999999999945       0.0041666666666666675    -7.688036723843701       0.1470482738395354       -0.2827758254131422      0.988478250933537        -1773.481036223348
0.3599999999999995        0                        0                        0                        -0.2817942565137229      0.9883623897659515       -1933.9195077583786
0.35999999999999954       0.0041666666666666675    -7.5565022612115476      -0.003475748228049104    -0.2818073996567736      0.9885006239474188       -1695.6829173220137
0.3399999999999994        0                        0                        0                        -0.2809669402678362      0.9883858619452082       -2124.5135969414105
0.33999999999999947       0.004166666666666667     -8.1616350053219         0.0013907514163360134    -0.2809776428558855      0.9885229542109756       -1787.6629774785983
0.31999999999999934       0                        0                        0                        -0.280241255365595       0.9884282103080897       -2157.756038689444
0.31999999999999934       0.0041666666666666675    -8.215709910114358       0.11619521942829411      -0.2802497492062912      0.9885525109793822       -1775.7338225072979
0.29999999999999927       0                        0                        0                        -0.2795731046012412      0.9885065561070399       -1830.2272409259049
0.29999999999999927       0.004166666666666668     -6.908597894470924       0.2926477850039475       -0.27957931330093266     0.9886068948765228       -1475.4766911840168
0.2799999999999992        0                        0                        0                        -0.27891307154198375     0.9886277189060567       -922.5764751872264
0.27999999999999914       0.0041666666666666675    -3.4111575484044767      0.5821576325237201       -0.27891642526887334     0.9886947170870539       -687.9945741949216
0.2599999999999991        0                        0                        0                        -0.27822263056212426     0.9888064596939533       1078.6016455439199
0.2599999999999991        0.004166666666666668     4.002657618099671        0.9891561405600517       -0.2782217428733564      0.9888479517512783       876.1696913411101
0.23999999999999905       0                        0                        0                        -0.2775311392871941      0.9890512233836939       3964.386138480162
0.23999999999999913       0.004166666666666668     14.425992498644266       0.8544964726949423       -0.27752560341152366     0.989115117785878        2917.6072649332805
0.21999999999999897       0                        0                        0                        -0.27694075370064286     0.9894132699101164       5043.049218174825
0.21999999999999903       0.0041666666666666675    18.213842744723454       -0.5496613599957126      -0.2769341375280613      0.9895984339926032       3571.735562466065
0.1999999999999989        0                        0                        0                        -0.27648275315514004     0.9929503781270673       2985.617794738532
0.1999999999999989        0.0041666666666666675    10.730170617524758       -1.1235159213457442      -0.27647774186558893     0.9929629352068443       2209.1296132537746
0.17999999999999883       0                        0                        0                        -0.2760816809125554      0.9995406769053343       805.1682252140679
0.17999999999999894       0.0041666666666666675    2.74328756552384         -0.7669885482793752      -0.27607860729301065     0.9983083613847092       498.0659521198347
0.15999999999999875       0                        0                        0                        -0.27563325793372107     1.0012096225746931       -828.0205644201552
0.15999999999999875       0.0041666666666666675    -3.3736763155166094      -0.43975840276115646     -0.27563384061704477     1.0008635326202486       -759.0228807475919
0.13999999999999868       0                        0                        0                        -0.2750007584500393      1.0015256570136717       -1361.6933799183373
0.13999999999999868       0.0041666666666666675    -5.438193106008964       0.20650150952912955      -0.27500610500237865     1.0014070563485296       -1207.0919836842088
0.11999999999999861       0                        0                        0                        -0.27407986032748616     1.0020501126562253       -689.1608504560897
0.11999999999999865       0.0041666666666666675    -2.9176415629663226      0.32723457302954256      -0.2740868663595629      1.0019399558266004       -724.6662972213272
0.09999999999999853       0                        0                        0                        -0.27294019828957083     1.0027281659743803       -62.47886143694245
0.09999999999999858       0.0041666666666666675    -0.48763140037009123     0.21125180869011143      -0.2729460939392415      1.0026482059854658       -186.76554021855665
0.07999999999999846       0                        0                        0                        -0.2717702177187121      1.0034779329236012       306.00894198496053
0.07999999999999849       0.0041666666666666675    0.8974571718914809       0.0690383238675103       -0.27177485303874005     1.0034386234211174       142.82865421035922
0.05999999999999839       0                        0                        0                        -0.2707397625436322      1.004645316849715        834.5183772174133
0.05999999999999845       0.0041666666666666675    2.4425705045984256       0.0716209102830931       -0.27074358906302914     1.0047492618498954       303.4240508804132
0.039999999999998315      0                        0                        0                        -0.2699603257993907      1.0100244257559476       839.0750638708738
0.03999999999999836       0.0041666666666666675    2.4804365538472886       -0.3306556019789482      -0.26996373482847197     1.0102715521745864       312.84473527458454
0.01999999999999824       0                        0                        0                        -0.26948214886574473     1.0098295126065724       223.9616025815631
0.019999999999998293      0.0041666666666666675    0.8722636706007952       -0.059982072865221496    -0.26948522842323414     1.0100541150878541       241.8253188464641
0                         0                        0                        0                        -0.26932089114214186     1.0082334205533978       27.324988816508426
0                         0.0041666666666666675    0.04449047932246686      -0.46698221787193034     -0.2693238508074581      1.0087134323205311       -62.23308202284404
0.4799999999999999        0.009848484848484874     -16.863775280990115      -0.8713859260581949      -0.28764744513271        0.987330139351486        -1682.3694553831933
0.5                       0.009848484848484869     -16.37590472331172       0.9241592655900103       -0.28833275136981384     0.9873333680957007       -1857.132538771542
0                         0.00984848484848485      0.04312473533517374      -0.9890828028150295      -0.2693373125333778      1.009867336589404        -49.19362484503387
0.019999999999998363      0.00984848484848485      1.6192286205263782       -0.8664415157372065      -0.26949948654567046     1.0103023211790187       125.58390015347906
0.4799999999999998        0.01704545454545457      -27.7716900123679        -1.997693908391183       -0.28773649644899485     0.9899058962136416       -1626.3080165782858
0.5                       0.017045454545454548     -28.858877759680173      2.9383102686106133       -0.28842528509260873     0.9893007671731257       -2042.0137252760119
0                         0.017045454545454544     0.01684550265057367      -2.0386071547521354      -0.26936906880066636     1.0088419766408436       -19.742486765805566
0.019999999999998446      0.017045454545454544     1.4109444927011625       -2.006177422642689       -0.26953357815610357     1.0082174424580088       -77.91847682954769
0.4800000000000001        0.025757575757575753     -39.25504203003453       -2.6471388058062346      -0.2878670130700015      0.9906312094308483       -1573.6717905723447
0.5                       0.025757575757575733     -43.241523843360774      7.264507323794857        -0.2885647677412223      0.9905687638921099       -2165.8831590033215
0                         0.025757575757575746     -0.01331178248065238     -2.821857275896309       -0.26942611967558905     1.0050440377268204       -6.0187138189550105
0.019999999999998543      0.025757575757575736     0.2073018272891192       -2.5404018916639313      -0.26959478029798095     1.004553898779804        -167.33432234868323
0.48000000000000004       0.03598484848484851      -49.976334406225625      -2.188547185540455       -0.28801605848750256     0.9914804829209628       -1655.0648636748588
0.5                       0.035984848484848474     -57.512375287979076      14.721933458143894       -0.2887314622722865      0.9901509691726154       -2160.6940413909847
0                         0.035984848484848474     -0.01786827135425977     -2.4316246081531716      -0.2695113455527843      1.0022839787973006       10.412782182042978
0.019999999999998665      0.03598484848484847      -1.0320666947885273      -1.9831695703644872      -0.26968482451687814     1.0021889717016355       -149.1051013621168
0.48000000000000004       0.04772727272727274      -59.26606974264915       0.841643474329812        -0.28814442473747426     0.9901144959372801       -1851.9915732988873
0.5                       0.04772727272727269      -69.1552583309849        25.2774123886039         -0.28888801802895925     0.9893177381856002       -2056.957307893419
0                         0.047727272727272715     -0.005547027365759032    -0.6324086730944468      -0.26962163313754134     1.000842202590663        30.832185493705303
0.0199999999999988        0.047727272727272715     -1.7090278682163664      -0.3557641903133635      -0.26979842080150895     1.0008566857416443       -95.04196142254929
0.4799999999999999        0.0609848484848485       -66.16458612087703       5.243947106855258        -0.2882044546212894      0.9895831359223747       -1980.3192748407268
0.5                       0.06098484848484845      -76.15688715532261       37.983210321163874       -0.28898635414255436     0.9880908820393725       -2022.6881667615144
0                         0.06098484848484848      0.006669913584793151     2.2357137024979754       -0.26974904099537106     0.9998394307863621       55.48772810293119
0.019999999999998963      0.06098484848484846      -1.7723527258432257      1.6649130936311962       -0.26992532544697256     1.000024686394282        2.2656246222715986
0.4800000000000001        0.07575757575757577      -70.37035449856859       9.911843707940236        -0.28814493651849715     0.9891584370017477       -2207.1892562144108
0.5                       0.07575757575757569      -77.508932649449         50.43252857919988        -0.2889723957911303      0.9866117546464368       -1936.3533856827862
0                         0.07575757575757573      0.013850469130391        5.640747499603292        -0.26988426092552975     0.998917067281109        91.00750191086605
0.019999999999999133      0.07575757575757572      -1.2700230589099804      3.2688443962314833       -0.27005420789674695     0.9994375089234204       175.42684505088255
0.4799999999999999        0.09204545454545453      -72.29211157171913       13.082938767597346       -0.2879111915770647      0.9894668098900008       -2289.630121593241
0.5                       0.09204545454545446      -73.76559081394475       59.14626343619589        -0.28878230902191626     0.985465368393952        -1956.510450782356
0                         0.09204545454545454      0.0024821141049655706    7.573540778848501        -0.270021792968641       0.997519258909878        110.09555126123017
0.01999999999999932       0.0920454545454545       0.24832620384446422      3.2078618464593123       -0.27017792907878224     0.9986526260018453       460.9207516311526
0.4800000000000001        0.10984848484848486      -71.80652400632795       14.921894945673547       -0.28744786480086515     0.9904325428249524       -1785.1060685871812
0.5                       0.10984848484848476      -67.51122496510249       60.55360705654711        -0.2883343425737154      0.9853950577456012       -2177.91784346321
0                         0.10984848484848486      0.007938379940196633     5.5091152088203          -0.2701639028060243      0.9952610242711315       122.72710936670316
0.01999999999999953       0.10984848484848489      3.471749764521033        0.14466596007956342      -0.2702992773432655      0.9976290635006095       542.563558291451
0.4800000000000001        0.12916666666666668      -63.953520557977654      19.890773181407756       -0.28672189949521093     0.991420347851151        -411.03805946914883
0.5                       0.12916666666666657      -61.48393293795994       54.949832142504725       -0.2875467245725523      0.9869322958841608       -2002.0785292052385
0                         0.12916666666666665      -0.009315794288705721    -5.474885485543851       -0.2703095633284545      0.9986725144386268       38.03684575579875
0.01999999999999975       0.12916666666666662      4.399048764835054        -7.149844699319876       -0.2704225505017434      0.9984526832704586       86.3173217840457
0.4800000000000001        0.14999999999999997      -40.9652485377998        32.18132501282596        -0.2857463541468358      0.9909622610422522       1149.5398294817012
0.5                       0.14999999999999986      -47.72038041137011       49.17458961035736        -0.2864115302558882      0.9898417469312912       -262.3693673744938
0.45999999999999996       0.1291666666666667       -51.29749222409107       12.409086654497415       -0.28603093595896945     0.9913667720391698       1522.2257795952241
0.4600000000000001        0.14999999999999997      -25.452371637168124      33.15100949065167        -0.28516279702371866     0.9877339732845459       1506.4321480910546
0.43999999999999984       0.12916666666666662      -33.40891844404837       25.583328767132816       -0.2854951546135999      0.9866448204615763       1808.9485360885433
0.44000000000000006       0.14999999999999997      -17.40840575842163       35.29186131855783        -0.28463615158644806     0.987789981978886        647.1727110126584
0.42                      0.12916666666666665      -26.601751696378976      37.86220549455466        -0.28497107403981675     0.9888597689113046       965.9885205810771
0.42000000000000004       0.14999999999999997      -18.624382408226538      36.67750560102172        -0.28409401958649355     0.9889630343020828       355.36821748193836
0.3999999999999999        0.12916666666666665      -31.217613150955184      44.165302427066536       -0.28435110761141386     0.9891743768066072       363.0388495278493
0.4                       0.14999999999999997      -24.000621228456755      36.61939590431118        -0.2834932380442071      0.9914983930338575       361.8242197910181
0.3799999999999999        0.12916666666666665      -39.24411398152962       41.50933294236414        -0.28361207213404804     0.9915776404287544       304.229339086984
0.38                      0.14999999999999997      -26.907534363012346      39.172262145308274       -0.2828288301977688      0.991123835518168        1062.802433239537
0.35999999999999993       0.1291666666666666       -42.57025935559096       45.536611027212906       -0.28278300287709984     0.9908982003114007       1078.9080740135296
0.36                      0.14999999999999997      -28.452439923859504      45.65862853734602        -0.2821105374659944      0.989915876420707        895.7116571324771
0.3399999999999998        0.12916666666666665      -42.61807692404374       42.701123458016326       -0.2818836769816703      0.9902989957769563       -254.11356511563858
0.33999999999999997       0.14999999999999997      -33.306490844848256      42.290930411167324       -0.28133646446534677     0.9906715516301635       -8.301866824052865
0.3199999999999999        0.12916666666666665      -41.7577075522383        31.402939522903274       -0.28099996402165706     0.9911512814067214       -402.3203102878849
0.31999999999999995       0.14999999999999997      -37.79645728229803       32.40373093739244        -0.28056387916377823     0.9912387659782134       -234.73523915114615
0.2999999999999998        0.12916666666666665      -42.51822687430799       26.474753212968732       -0.28023009683946287     0.9918682569029208       -96.54080479955579
0.29999999999999993       0.14999999999999997      -40.66192043666689       26.89043495244453        -0.2798724369395209      0.9918675772987999       137.73568235572662
0.27999999999999986       0.12916666666666665      -45.66239711793658       28.412459262746836       -0.279584020567447       0.99299555953782         301.8962464679167
0.2799999999999999        0.14999999999999997      -42.60798866404051       28.81769780468195        -0.27927954419345663     0.9922264031991763       609.4667799693904
0.25999999999999984       0.12916666666666665      -50.03089688330437       33.68578418400821        -0.2790120852041958      0.9933973680118222       355.3915136146291
0.2599999999999999        0.14999999999999997      -44.59360429104643       33.972753205110294       -0.27874175930813394     0.9930059298125453       685.4405068829063
0.2399999999999997        0.12916666666666662      -54.27661948012214       37.225278603589445       -0.27844673071621573     0.9941007231459364       369.6115639356122
0.2399999999999999        0.14999999999999997      -45.69301938523131       39.224995104263996       -0.27819094653951104     0.9948115853383255       787.6118840080971
0.21999999999999978       0.12916666666666665      -55.73265418009338       37.223571393957315       -0.2778132870912485      0.9912599123101522       245.95991142254596
0.21999999999999992       0.14999999999999997      -45.71405816687982       44.037707681660784       -0.27755524148905575     0.9907820416604992       688.1893999092252
0.1999999999999998        0.12916666666666662      -51.66826455894818       35.032881144864916       -0.277036898912843       0.994117029568279        572.3705701933495
0.19999999999999993       0.14999999999999997      -40.53050873474757       47.98594683746641        -0.27677705761292176     0.9946425630766487       1109.8943288287905
0.1799999999999998        0.12916666666666668      -38.4862741605604        24.64024466520536        -0.2760969118105459      0.9917895852372856       -1233.3429486724415
0.17999999999999994       0.14999999999999997      -29.99316911033537       44.81593806248574        -0.2758670048424357      0.9933744943655796       -499.3334934254319
0.15999999999999975       0.1291666666666666       -13.831513610398089      16.70873241025432        -0.2751502342415042      0.9936172904918583       1458.7777465575407
0.15999999999999995       0.14999999999999997      -10.750639003212127      45.57018990486536        -0.27497151026006234     0.9938888494414503       1425.6436943687854
0.1399999999999998        0.12916666666666665      12.805948208516089       45.273572814928706       -0.274353914520547       0.9939898418908886       1049.3889617950883
0.13999999999999996       0.14999999999999997      9.734366969818446        61.903018339178175       -0.2741812556624063      0.9932696240694484       -174.7789234843398
0.11999999999999979       0.12916666666666665      21.142000540528187       33.05613599228794        -0.2735790680073398      0.9933892406663536       -2714.476901573479
0.11999999999999997       0.14999999999999997      15.472872113649283       26.383035698958416       -0.273397906803744       0.9971261069199497       -3366.057171550573
0.09999999999999976       0.12916666666666665      15.632732430093746       -3.830229224076929       -0.2727567000858228      0.9971104483598138       -1201.8661811180143
0.09999999999999998       0.14999999999999997      13.049842566873663       -10.86630616171736       -0.272609248630187       0.9977422599515389       -1023.145550685521
0.07999999999999978       0.12916666666666665      11.436758126846804       -13.222597805352684      -0.27196805806578944     0.9972409326924332       -13.192472357978701
0.07999999999999999       0.14999999999999997      10.532620002107024       -18.9861949090813        -0.2718819931250661      0.996626527350998        -18.163063530104008
0.059999999999999776      0.12916666666666665      8.601958915585168        -11.77973856101644       -0.2712835583548384      0.9976457542139401       152.3063715751926
0.06                      0.14999999999999997      8.388439461274585        -16.792997394062354      -0.2712654697252621      0.9967443437990735       200.0247335797625
0.039999999999999765      0.12916666666666662      6.570167605363409        -9.24590411317684        -0.27075487781969454     0.9980813049916915       82.83134278476672
0.04                      0.14999999999999997      6.581923761062344        -14.645300304517944      -0.2707963432838125      0.9972849656344476       58.97827513037026
0.02                      0.14999999999999997      3.9809979733667213       -14.966172307899054      -0.2705043523464303      0.9979398982225303       -64.8588091514244
0                         0.15                     -0.02262613035949504     -15.566565745734904      -0.27040568529914255     0.9982527160265687       -10.113120031501932
0.45999999999999985       0.009848484848484872     -22.694543705480587      -1.7437401427426422      -0.2869574027239738      0.9875454465237559       -1931.4462750844168
0.43999999999999984       0.009848484848484872     -28.599539996114746      -0.543574775053263       -0.2861430047441151      0.9882766074822003       -2256.973353450583
0.41999999999999976       0.009848484848484872     -27.889137318479232      1.6835017705537578       -0.2851232888462344      0.9887084534895336       -2301.9683220426105
0.3999999999999996        0.00984848484848487      -21.65991302533256       1.9792818015247577       -0.2839635964657474      0.988934977417451        -1990.6881310775716
0.3799999999999996        0.009848484848484867     -17.046037466097513      0.8088504380923505       -0.28284160798788094     0.9890370845981148       -1600.7088562030283
0.3599999999999996        0.009848484848484872     -16.311918585818493      0.01861958960295522      -0.2818607300637751      0.9890590803248606       -1405.8811085063337
0.3399999999999995        0.009848484848484867     -17.18332978399114       0.02495480762529549      -0.28102036864413626     0.9890687445976043       -1365.9943803739607
0.3199999999999994        0.009848484848484869     -17.082503387652636      0.6087520813247705       -0.2802830803721771      0.989069599812993        -1298.3632102067506
0.2999999999999993        0.009848484848484867     -14.199350382798258      1.4947766177168742       -0.2796034159540808      0.9890533634208198       -1036.0467182043512
0.2799999999999992        0.009848484848484863     -6.869640300362003       2.9146693865255067       -0.2789297937678915      0.9890096593969568       -401.7696374739698
0.25999999999999907       0.009848484848484863     7.766718230611811        5.001791965971011        -0.2782207005757516      0.9890072206714633       591.2961009585501
0.2399999999999991        0.009848484848484862     27.663050225506463       4.496450889521496        -0.27750961623280523     0.9893461073388917       1514.0571492411066
0.219999999999999         0.009848484848484862     34.79520142753894        -2.658612103450807       -0.27691339676571824     0.9902597524224821       1668.800149441151
0.19999999999999896       0.00984848484848486      20.67510506526556        -5.602653089080618       -0.2764596441264531      0.9914381654648574       1513.080281569271
0.1799999999999989        0.00984848484848486      5.30163612523132         -3.7580964497367106      -0.27606563214430946     0.9932565116601161       407.0297551002822
0.15999999999999887       0.009848484848484858     -7.72250067244346        -2.6578036432112095      -0.27563442764655677     0.9976642744718907       -596.0372376080732
0.13999999999999876       0.00984848484848486      -12.3874780763158        1.150253047569017        -0.2750261424496288      1.0009526862799165       -1046.5488316673172
0.11999999999999869       0.009848484848484855     -7.012257063916981       1.9037332317941271       -0.2741153630122151      1.0015582536850256       -771.8958815487508
0.09999999999999862       0.009848484848484853     -1.7500679143404505      1.0436484046274586       -0.2729718217277856      1.0023336244419458       -329.22180186259766
0.07999999999999856       0.009848484848484853     1.040262503780244        0.4756718620754843       -0.271796505672962       1.0032321321954216       -48.179740794014286
0.059999999999998485      0.00984848484848485      3.0345907214310013       0.3698729977932412       -0.27076271469720903     1.00471694838187         -199.75376481244984
0.039999999999998426      0.00984848484848485      3.1993157524675837       -1.3458721420820585      -0.2699804656761325      1.0099244731077852       -149.46111657118638
0.45999999999999985       0.017045454545454565     -34.624602040017145      -4.237108466225609       -0.28706241219005124     0.9887186463477123       -1397.1820598057463
0.4399999999999997        0.017045454545454558     -43.29910620832019       -1.6430330269337334      -0.28627965867090965     0.9875127162137038       -1381.5941235992975
0.41999999999999965       0.017045454545454555     -43.40526149983104       4.298121031873936        -0.2852848184949205      0.9889221639929219       -1685.6649776591582
0.39999999999999963       0.017045454545454558     -34.55662503213146       5.438570791391582        -0.28412104868280985     0.9897362215624316       -1756.1766256617082
0.37999999999999967       0.017045454545454558     -27.14844345393697       2.462836402984842        -0.2829763799770253      0.9901512943692441       -1443.5020438902038
0.3599999999999995        0.01704545454545456      -25.06812519070811       0.34487586688161054      -0.28196984868221986     0.9901504898743438       -1096.3297164896987
0.3399999999999996        0.017045454545454555     -25.55284702031253       0.22145067029276264      -0.2811061022884854      0.990008852210569        -899.6062487953368
0.3199999999999994        0.01704545454545455      -25.060502783169813      1.6923834378529519       -0.2803485853544886      0.9899479882566983       -776.2307601260763
0.2999999999999993        0.017045454545454555     -20.661569992987328      4.077997012825669        -0.27965047635233375     0.989909869856942        -580.6755254328457
0.27999999999999925       0.017045454545454558     -10.110420775592717      7.67752626040249         -0.2789577128502692      0.9897132690198274       -139.34213086476348
0.2599999999999993        0.017045454545454555     9.35364943763064         12.666942318867795       -0.2782267685754789      0.9893810851085619       202.33347422433587