% Model:              Tmax38_Nu_0.9.mph
% Version:            COMSOL 5.2.0.166
% Date:               Jun 16 2017, 10:58
% Dimension:          2
% Nodes:              4413
% Expressions:        5
% Description:        Velocity field, r component, Velocity field, z component, Temperature, Dependent variable S, Vorticity field, phi component
% Length unit:        m
% r                       z                        u @ t=0.03               w @ t=0.03               T @ t=0.03               S @ t=0.03               spf.vorticityphi @ t=0.03
0.4799999999999999        0                        0                        0                        -0.0735131686690683      0.9935106641642498       -4882.129945242977
0.5                       0                        0                        0                        -0.07412396284868188     0.9932893680260741       -4858.295039193003
0.4800000000000001        0.0041666666666666675    -19.376624644935326      0.07506399059040911      -0.07352650690689447     0.9933104575593359       -4417.668102839679
0.5                       0.004166666666666665     -19.272106247086654      0.06617552889218598      -0.07413706565245302     0.9930950991282304       -4391.502309369157
0.45999999999999985       0                        0                        0                        -0.07292135482267814     0.9937325443993528       -4889.5824825222035
0.45999999999999996       0.004166666666666668     -19.418031654240274      0.087014900191467        -0.07293487068321548     0.9935272057079896       -4429.957624330576
0.4399999999999998        0                        0                        0                        -0.07234766245174515     0.9939542487052846       -4874.961943240988
0.43999999999999984       0.004166666666666669     -19.374842728395592      0.1002961389569812       -0.07236126475233202     0.9937444568143919       -4423.8443958468
0.4199999999999997        0                        0                        0                        -0.07179217610218235     0.9941750881610443       -4837.263999096467
0.4199999999999997        0.0041666666666666675    -19.243473121989876      0.11277935484731562      -0.07180575239334494     0.9939613505138006       -4398.615048451126
0.39999999999999963       0                        0                        0                        -0.07125575585369921     0.9943944913120876       -4780.82952522318
0.3999999999999996        0.0041666666666666675    -19.040778039533077      0.12244013538402046      -0.07126919165075715     0.9941771415016643       -4357.996009489013
0.37999999999999956       0                        0                        0                        -0.0707397103650423      0.9946120168828337       -4714.583050021579
0.37999999999999945       0.0041666666666666675    -18.80127396163453       0.1278812711864598       -0.07075290989893902     0.9943912504452546       -4309.5848689827835
0.3599999999999995        0                        0                        0                        -0.07024539269264636     0.994827365269033        -4650.520204027482
0.35999999999999954       0.0041666666666666675    -18.57139906825891       0.12849055563340178      -0.07025829614755166     0.9946033062172079       -4263.629885186561
0.3399999999999994        0                        0                        0                        -0.06977379675157976     0.9950403853453904       -4602.032161147008
0.33999999999999947       0.004166666666666667     -18.40301349838464       0.12445739452635268      -0.06978639131346076     0.9948131765338878       -4231.588002704407
0.31999999999999934       0                        0                        0                        -0.06932520064601573     0.9952510909160551       -4582.230905179831
0.31999999999999934       0.0041666666666666675    -18.34677656409416       0.11680896953866315      -0.06933752500486522     0.9950210022691632       -4224.613222681786
0.29999999999999927       0                        0                        0                        -0.06889886732681039     0.9954597057581465       -4601.989878580169
0.29999999999999927       0.004166666666666668     -18.444383604142487      0.10759905104191488      -0.06891101068997302     0.9952272518022629       -4251.778467440279
0.2799999999999992        0                        0                        0                        -0.06849278308588942     0.9956667665523875       -4667.24102384373
0.27999999999999914       0.0041666666666666675    -18.717989542758243      0.10023651337537166      -0.06850488032065453     0.9954328171736334       -4317.695335672232
0.2599999999999991        0                        0                        0                        -0.06810338737539944     0.9958733213788464       -4775.173859457593
0.2599999999999991        0.004166666666666668     -19.155535586600188      0.09983502067390128      -0.0681156118225137      0.9956391754175196       -4419.274135321394
0.23999999999999905       0                        0                        0                        -0.06772522174098536     0.9960812693334438       -4909.342002290336
0.23999999999999913       0.004166666666666668     -19.69205680669923       0.11331906640162057      -0.06773777647974163     0.9958486374789723       -4541.666188859135
0.21999999999999897       0                        0                        0                        -0.06735040731739161     0.9962939016978065       -5034.5542012558435
0.21999999999999903       0.0041666666666666675    -20.190331490280464      0.14872497597356615      -0.06736351408831182     0.9960647155925065       -4654.149095751757
0.1999999999999989        0                        0                        0                        -0.06696786054134532     0.9965167470494886       -5094.275807698905
0.1999999999999989        0.0041666666666666675    -20.431137346237676      0.21279013409047876      -0.06698174312028064     0.9962926995968344       -4708.1827531918625
0.17999999999999883       0                        0                        0                        -0.06656220266547026     0.9967589096155498       -5015.719459860349
0.17999999999999894       0.0041666666666666675    -20.13255551719918       0.3062579404985279       -0.06657705770110103     0.9965407150883674       -4641.743634462174
0.15999999999999875       0                        0                        0                        -0.06611253257592731     0.9970351877778724       -4727.635927631388
0.15999999999999875       0.0041666666666666675    -19.017506419686395      0.4187106916048993       -0.06612847191010093     0.9968218828578562       -4393.910628630324
0.13999999999999868       0                        0                        0                        -0.06559207441764782     0.9973691358935443       -4187.068718625332
0.13999999999999868       0.0041666666666666675    -16.917231796950418      0.5284094203231475       -0.06560899973263105     0.9971584681415969       -3927.215182723132
0.11999999999999861       0                        0                        0                        -0.06497213877261268     0.9977959041726606       -3396.3503059255736
0.11999999999999865       0.0041666666666666675    -13.842685551139834      0.6107992926664751       -0.06498949122442102     0.9975878824107387       -3244.337571555305
0.09999999999999853       0                        0                        0                        -0.06423729796349602     0.9983553412987738       -2401.0459756831183
0.09999999999999858       0.0041666666666666675    -9.982250570384243       0.6402561748499958       -0.0642537706131768      0.998161889266239        -2390.4534468891966
0.07999999999999846       0                        0                        0                        -0.06341447050855423     0.9990282222503872       -1324.4559747900485
0.07999999999999849       0.0041666666666666675    -5.802154590062394       0.5743168618512792       -0.06342823453544741     0.9988879571508785       -1470.152245087225
0.05999999999999839       0                        0                        0                        -0.06259375323797359     0.9995960007092808       -432.033009193304
0.05999999999999845       0.0041666666666666675    -2.254771783973616       0.3721067033043951       -0.06260365689846484     0.9995409025216132       -666.9608185479593
0.039999999999998315      0                        0                        0                        -0.06190280209598358     0.9998669860530962       40.752710461421586
0.03999999999999836       0.0041666666666666675    -0.23695723242346678     0.12773297228206015      -0.06190929522904931     0.9998545528443703       -166.46039933138508
0.01999999999999824       0                        0                        0                        -0.061449509089303904    0.9999564072719033       132.09403803900494
0.019999999999998293      0.0041666666666666675    0.30781001980510336      -0.04254921112683216     -0.06145399438133893     0.999953350376483        10.059655263222522
0                         0                        0                        0                        -0.0612925784828821      0.9999771288211101       27.5273764157678
0                         0.0041666666666666675    0.04072641666705083      -0.10224385067727038     -0.06129644832499274     0.9999757366146906       -3.9720311323324364
0.4799999999999999        0.009848484848484874     -42.728938436520984      0.4062155950495259       -0.07357531163730678     0.9927202188888957       -3798.6790730622265
0.5                       0.009848484848484869     -42.464643136152006      0.35889730440977075      -0.07418444288711429     0.9925305605878622       -3769.588118842444
0                         0.00984848484848485      0.027305331648250424     -0.3525752734313151      -0.06131396901422467     0.9999694259009384       -2.178802671680266
0.019999999999998363      0.00984848484848485      0.040504028848999236     -0.03504943397691914     -0.061474387334200645    0.9999383312524711       -141.19622200221346
0.4799999999999998        0.01704545454545457      -67.39066149690575       1.1344350991871026       -0.07365629235674032     0.9921017373869007       -3043.4401447692544
0.5                       0.017045454545454548     -66.89580509002012       1.0025342865978142       -0.07426089376967163     0.991970137052093        -3011.6322458890745
0                         0.017045454545454544     0.010416522297417725     -0.27639636467859896     -0.061354996569368714    0.9999550772725145       -2.995904491488459
0.019999999999998446      0.017045454545454544     -1.1957969078391335      0.6338501375000156       -0.06152224136186099     0.9998997842636349       -323.673133497525
0.4800000000000001        0.025757575757575753     -90.26323303584962       2.345006710523489        -0.07373437568722828     0.9920510907240183       -2182.328840657386
0.5                       0.025757575757575733     -89.45841384984713       2.071743234353698        -0.07432811341175449     0.992019775724049        -2150.1712424919574
0                         0.025757575757575746     -0.0066224526626193735   1.2608500388048214       -0.061428206776695866    0.9999321901977364       -6.147854077836113
0.019999999999998543      0.025757575757575736     -3.6969492280737066      3.232166893480602        -0.061607672653055126    0.9998237770000764       -535.0514515592856
0.48000000000000004       0.03598484848484851      -108.1336169550958       4.026027640513826        -0.07373811648763023     0.9929841214125543       -1267.4001217570626
0.5                       0.035984848484848474     -106.95875092224708      3.5565650384118412       -0.07431028168806858     0.9930885797734831       -1240.3516912967589
0                         0.035984848484848474     -0.022903810846509904    6.126662318849269        -0.06153717711509858     0.9999076091561311       -12.578297527926825
0.019999999999998665      0.03598484848484847      -7.556692894305351       9.723293683903114        -0.06173494431549178     0.9996979787777573       -768.2965550785857
0.48000000000000004       0.04772727272727274      -118.21648134208296      6.0495747225593          -0.07356822607334161     0.9948328868395362       -381.3106965220919
0.5                       0.04772727272727269      -116.67597258691976      5.3493963457244735       -0.07410360941974517     0.9950550845892395       -366.3883509597898
0                         0.047727272727272715     -0.035977259869370996    16.763847341388253       -0.0616778875209417      0.999890655448895        -23.864741702812758
0.0199999999999988        0.047727272727272715     -12.5632322714537        22.56627929646849        -0.06189976707897318     0.9994924535426883       -1007.6489714710033
0.4799999999999999        0.0609848484848485       -118.87759217213674      8.22291832284782         -0.07311972757638094     0.9969374575680946       374.4592052985024
0.5                       0.06098484848484845      -117.06790760306271      7.29703410113274         -0.07360034451267793     0.9971842298027255       373.2821349389899
0                         0.06098484848484848      -0.04194115635572715     35.7482540122599         -0.06184006336790333     0.9998509562017202       -44.43812773059437
0.019999999999998963      0.06098484848484846      -18.136149449830345      44.205722234747114       -0.062090623355567684    0.9991835741607322       -1222.7015955004408
0.4800000000000001        0.07575757575757577      -110.13261768796146      10.353184800351446       -0.07231127012968366     0.9985336553688158       924.699099205284
0.5                       0.07575757575757569      -108.2169768457536       9.244808369972898        -0.07272007502518912     0.9987150571928587       909.1957190486685
0                         0.07575757575757573      -0.03863027675567666     65.05045353992566        -0.06201152951491112     0.9998140984604305       -76.83610633148096
0.019999999999999133      0.07575757575757572      -23.4101898044303        76.31488792228107        -0.062293099828467015    0.9988033752410703       -1384.1401741111426
0.4799999999999999        0.09204545454545453      -93.45604964386953       12.242677166794094       -0.0711093722502535      0.9993961091054749       1255.083059851273
0.5                       0.09204545454545446      -91.61532783724743       11.01769065456022        -0.07143489347929527     0.9994935659330305       1229.5424265322072
0                         0.09204545454545454      -0.027073790672372727    105.28739701932001       -0.06218213108563882     0.9997896165830098       -118.51395065124589
0.01999999999999932       0.0920454545454545       -27.468205426328407      119.12985039962189       -0.062493919807921426    0.9983877518786628       -1475.9097519141362
0.4800000000000001        0.10984848484848486      -71.10031645605203       13.682758705073658       -0.06953750165311116     0.9997479320766014       1396.0645053982653
0.5                       0.10984848484848476      -69.51847043821654       12.420043637552071       -0.06977726860883465     0.9997910617721416       1363.04438419035
0                         0.10984848484848486      -0.009900124785167004    155.21077884021958       -0.062345121028239026    0.9997728375192275       -163.73250387242206
0.01999999999999953       0.10984848484848489      -29.58669997136079       171.10069403577182       -0.06268277361414895     0.9979762449339955       -1498.791386294573
0.4800000000000001        0.12916666666666668      -45.55754351956677       14.668960181169016       -0.06767011895492357     0.9998562040318398       1385.3569602083228
0.5                       0.12916666666666657      -44.43515313574992       13.458992871781494       -0.06783057363021612     0.9998758848033855       1345.7380971537978
0                         0.12916666666666665      0.009685837516533582     211.68143033378527       -0.062496581626755324    0.9997535624414755       -207.11660233057654
0.01999999999999975       0.12916666666666662      -29.369316567434794      228.93764018461218       -0.06285240573599174     0.9975963590539733       -1464.315814815644
0.4800000000000001        0.14999999999999997      -19.4086447344172        14.901167062843546       -0.06561593181830334     0.9998787422261926       1250.2455454963438
0.5                       0.14999999999999986      -18.951485649073042      13.830447048407704       -0.06570763176325169     0.9998905202434649       1206.1799952265833
0.45999999999999996       0.1291666666666667       -46.93383387807125       16.096745196004672       -0.06750703432189345     0.9998316226928314       1423.4372934946052
0.4600000000000001        0.14999999999999997      -20.12557785709632       16.141037852206587       -0.0655194312124676      0.999864572857351        1294.0539806973402
0.43999999999999984       0.12916666666666662      -48.629612035710494      17.69593307956956        -0.06733874686369509     0.9998021041052882       1457.4095468032547
0.44000000000000006       0.14999999999999997      -21.158373783384032      17.521565024327767       -0.06541679376543891     0.9998476156271843       1336.0262963157109
0.42                      0.12916666666666665      -50.693980215259295      19.367698082082256       -0.06716266257470656     0.9997669718283904       1484.8210757619486
0.42000000000000004       0.14999999999999997      -22.550342879231994      18.96630551266927        -0.06530692089716238     0.9998241458303784       1374.405468119075
0.3999999999999999        0.12916666666666665      -53.15122915706637       20.976367148661062       -0.06697709843750864     0.9997261375331186       1504.1290372262692
0.4                       0.14999999999999997      -24.329399521410394      20.369449814806572       -0.06518960813614653     0.9997955902882274       1408.5018120901118
0.3799999999999999        0.12916666666666665      -55.99869554084039       22.375914677312515       -0.06678218052420531     0.9996829450827353       1515.1000659805536
0.38                      0.14999999999999997      -26.499095441946075      21.617737458001876       -0.0650662356367262      0.9997714775723422       1437.7287025767564
0.35999999999999993       0.1291666666666666       -59.21942595523924       23.445186318063065       -0.06658049884990419     0.999637699450992        1519.2171366077127
0.36                      0.14999999999999997      -29.047731412221705      22.591486154941823       -0.06494006419567305     0.9997408078192855       1462.495172418241
0.3399999999999998        0.12916666666666665      -62.809918533802126      24.129038329195094       -0.06637754353004849     0.9995852452542389       1519.9822855464363
0.33999999999999997       0.14999999999999997      -31.995872941745976      23.205350495127753       -0.06481674243854729     0.9996908794816012       1484.4945895081269
0.3199999999999999        0.12916666666666665      -66.8064051136977        24.491611418896827       -0.06618202379341508     0.9995250445322948       1522.7465465712762
0.31999999999999995       0.14999999999999997      -35.43802200971136       23.474013295996656       -0.06470517680479428     0.9996323303248105       1507.2978616901778
0.2999999999999998        0.12916666666666665      -71.29339200657769       24.779041578159504       -0.06600590328980316     0.9994551036524986       1534.9260916147373
0.29999999999999993       0.14999999999999997      -39.549174117715644      23.604964951723563       -0.06461809271689345     0.9995631476577401       1537.7550665398562
0.27999999999999986       0.12916666666666665      -76.38704110164774       25.48010607960873        -0.0658638099194721      0.999370470607433        1566.544359067259
0.2799999999999999        0.14999999999999997      -44.55625557135225       24.101684393194766       -0.06457165352930191     0.9994793760612801       1586.3104089935132
0.25999999999999984       0.12916666666666665      -82.19119818511669       27.382792813014103       -0.06577151012202218     0.9992640690939596       1631.0990153324224
0.2599999999999999        0.14999999999999997      -50.65825991894996       25.86060552212426        -0.06458371595699523     0.9993783640777415       1668.4577304057693
0.2399999999999997        0.12916666666666662      -88.73541581117216       31.61533040348464        -0.06574316744827009     0.9991249408990708       1746.2490270142448
0.2399999999999999        0.14999999999999997      -57.90301440244375       30.217557848988495       -0.06467045105446384     0.99925397151393         1804.306554346315
0.21999999999999978       0.12916666666666665      -95.92691964643885       39.65742483114383        -0.0657872938746476      0.9989355643212326       1933.4974554710493
0.21999999999999992       0.14999999999999997      -66.09641446724076       38.89446155885178        -0.06484150976892415     0.9990925168861552       2016.2575223888389
0.1999999999999998        0.12916666666666662      -103.54666629683976      53.32813657328778        -0.06590170362111457     0.9986654042284262       2215.8272548320256
0.19999999999999993       0.14999999999999997      -74.83014307517853       53.895807986614          -0.0650944722827186      0.9988744727408663       2328.452203244464
0.1799999999999998        0.12916666666666668      -111.25592810590263      74.70970670771275        -0.06606802908234097     0.9982565534200781       2607.2837357985454
0.17999999999999994       0.14999999999999997      -83.60321431923794       77.44702273626437        -0.06540925089619203     0.998553663108688        2762.885191266931
0.15999999999999975       0.1291666666666666       -118.50436828620786      105.76330013929423       -0.0662466424496843      0.9976246037525578       3081.3511673595176
0.15999999999999995       0.14999999999999997      -91.87043623852061       111.78729546048535       -0.0657429465158068      0.9980511124228625       3315.416329403386
0.1399999999999998        0.12916666666666665      -124.23532739963346      147.14006270158723       -0.06637404040931563     0.9966251205047486       3508.266494758929
0.13999999999999996       0.14999999999999997      -98.85980242486004       158.2196017115363        -0.06602688679567345     0.9972037484656736       3888.5598675720007
0.11999999999999979       0.12916666666666665      -126.44186225879633      195.72428255503047       -0.0663664956526871      0.9952021662819377       3586.477807579954
0.11999999999999997       0.14999999999999997      -103.13822224945555      214.64090847358725       -0.06616979086878626     0.9958742596655157       4195.615658551364
0.09999999999999976       0.12916666666666665      -122.13446042074128      242.05266223355218       -0.06613331177389743     0.9937013870985374       2932.4547454525077
0.09999999999999998       0.14999999999999997      -102.28623314572994      272.09618466477394       -0.06607134312088628     0.994226017612877        3771.083980613116
0.07999999999999978       0.12916666666666665      -108.75407844443288      272.135149260934         -0.06560079782019515     0.9929834155702902       1509.4884008496856
0.07999999999999999       0.14999999999999997      -93.63506792648252       314.79398296427286       -0.06564790154719444     0.9930754628192369       2377.722196628002
0.059999999999999776      0.12916666666666665      -86.61560867295351       276.7893369746478        -0.06475741839008381     0.9936338108706486       -65.57859076280285
0.06                      0.14999999999999997      -76.4556464500059        329.45731537577853       -0.06487797293297717     0.9933583120885989       558.739362169927
0.039999999999999765      0.12916666666666662      -58.995413814461635      258.6554711931195        -0.06373410148869223     0.9951454451239976       -1203.3104511463787
0.04                      0.14999999999999997      -53.05859059516004       316.47246854304586       -0.06388436433019236     0.9947831642400775       -871.4735656313309
0.02                      0.14999999999999997      -26.756605749819112      287.96307472756445       -0.06299807320365051     0.9972671539649475       -1388.5868441241055
0                         0.15                     0.028539921998320006     270.0341853501133        -0.06263429856369684     0.9997270881902939       -245.28362793169165
0.45999999999999985       0.009848484848484872     -42.86038846091112       0.46936769515918497      -0.07298485780114738     0.9929138010943153       -3817.3346105681358
0.43999999999999984       0.009848484848484872     -42.81458008482961       0.5396449624308859       -0.07241206084841798     0.9931099470338989       -3822.440186708604
0.41999999999999976       0.009848484848484872     -42.58440866163856       0.6058008163349209       -0.0718568972651193      0.9933071645645335       -3813.493433773385
0.3999999999999996        0.00984848484848487      -42.20556728463543       0.6572767708075797       -0.07132020979228132     0.9935040850474103       -3793.2654815915485
0.3799999999999996        0.009848484848484867     -41.7512414139775        0.6867084938258943       -0.07080339087497128     0.9936996751688112       -3767.5282546268063
0.3599999999999996        0.009848484848484872     -41.32024667398385       0.6908670681701448       -0.07030796384605935     0.9938933943885208       -3744.220461610723
0.3399999999999995        0.009848484848484867     -41.023152072648884      0.6707378413985898       -0.06983515062818392     0.9940853150411602       -3732.309608631916
0.3199999999999994        0.009848484848484869     -40.967777028182105      0.631725140493205        -0.06938548345676375     0.9942762304163943       -3740.492949182559
0.2999999999999993        0.009848484848484867     -41.242174651131855      0.584619292936301        -0.0689584782740211      0.9944677665394435       -3775.6631936466692
0.2799999999999992        0.009848484848484863     -41.8918500420546        0.5472738314212695       -0.06855235324983172     0.9946625069773817       -3840.9597429412834
0.25999999999999907       0.009848484848484863     -42.888725307581716      0.5463984327655667       -0.06816374556881802     0.994864123964222        -3933.2627041135734
0.2399999999999991        0.009848484848484862     -44.092093827721655      0.6181803501374209       -0.06778735064585449     0.9950774588527056       -4040.1993519673524
0.219999999999999         0.009848484848484862     -45.208374970853235      0.8049564460973276       -0.06741538623435482     0.9953084093037214       -4137.242166205363
0.19999999999999896       0.00984848484848486      -45.7702978681684        1.1432220840562983       -0.0670367813925918      0.9955634577788379       -4186.444794634801
0.1799999999999989        0.00984848484848486      -45.175008988849804      1.6394382661065992       -0.06663603140332915     0.9958490197287042       -4139.527264604356
0.15999999999999887       0.009848484848484858     -42.82250832283816       2.241464176961126        -0.06619184888630167     0.9961719965865274       -3948.0161761319678
0.13999999999999876       0.00984848484848486      -38.337712516189704      2.8341308914460925       -0.06567650894948486     0.9965450052622706       -3579.83517775947
0.11999999999999869       0.009848484848484855     -31.745903639002236      3.282565581975723        -0.0650592146900922      0.9970004411463089       -3036.2580327885935
0.09999999999999862       0.009848484848484853     -23.48898296075388       3.4585773755624856       -0.06432100571165701     0.997607981904886        -2362.4051194347135
0.07999999999999856       0.009848484848484853     -14.531428681219765      3.1432357381417213       -0.06348602615710676     0.9984404923418206       -1645.3733352941333
0.059999999999998485      0.00984848484848485      -6.671708734217833       2.1265393313057674       -0.06264686935285019     0.9993242484690821       -971.156968646267
0.039999999999998426      0.00984848484848485      -1.7630119960233415      0.8576097874535866       -0.061938557719246175    0.99979709037103         -439.41133699921437
0.45999999999999985       0.017045454545454565     -67.69047666778985       1.3090702369930736       -0.07306984099689949     0.9922410104467038       -3069.2458849291925
0.4399999999999997        0.017045454545454558     -67.72956516736929       1.5033841361809945       -0.07250026926603616     0.9923866080161763       -3087.425219769053
0.41999999999999965       0.017045454545454555     -67.49680603892244       1.6869812138217923       -0.07194736342803928     0.992536401876607        -3097.499518517011
0.39999999999999963       0.017045454545454558     -67.04449395163864       1.8310909810627845       -0.07141190355867998     0.9926880164024319       -3100.904057787836
0.37999999999999967       0.017045454545454558     -66.48172594199897       1.9153805927204703       -0.07089537565179402     0.992839365801312        -3101.1031970631875
0.3599999999999995        0.01704545454545456      -65.95721071791277       1.930795815479951        -0.07039954031748367     0.9929890912193048       -3103.2247220238887
0.3399999999999996        0.017045454545454555     -65.63828173667395       1.87999339927529         -0.06992596176151804     0.9931369083942534       -3113.287471458478
0.3199999999999994        0.01704545454545455      -65.6883719669324        1.7780127607461842       -0.06947557233349337     0.9932839148442225       -3137.166956631312
0.2999999999999993        0.017045454545454555     -66.24064858027553       1.6548635248623702       -0.06904830266824685     0.9934328787595966       -3179.3723175848672
0.27999999999999925       0.017045454545454558     -67.36346050959813       1.559917674392428        -0.06864276613178219     0.9935885272547337       -3241.6293657649635
0.2599999999999993        0.017045454545454555     -69.01421171035926       1.5665704919739136       -0.06825595005430671     0.9937578653446371       -3321.243000465578