% Model:              Tmax38_Nu_0.9.mph
% Version:            COMSOL 5.2.0.166
% Date:               Jun 16 2017, 10:58
% Dimension:          2
% Nodes:              4413
% Expressions:        5
% Description:        Velocity field, r component, Velocity field, z component, Temperature, Dependent variable S, Vorticity field, phi component
% Length unit:        m
% r                       z                        u @ t=0.085              w @ t=0.085              T @ t=0.085              S @ t=0.085              spf.vorticityphi @ t=0.085
0.4799999999999999        0                        0                        0                        -0.16361554245285964     0.9880775076630808       -4323.852358572292
0.5                       0                        0                        0                        -0.16444792212215292     0.9873095065788073       -2433.4009444080043
0.4800000000000001        0.0041666666666666675    -16.682568935296043      -0.6540669728352886      -0.163630220929808       0.9877638052221992       -3668.956471505935
0.5                       0.004166666666666665     -9.82893101461203        -0.6438350376398337      -0.1644493047588439      0.9871338121062303       -2303.9764893833317
0.45999999999999985       0                        0                        0                        -0.16237983484454652     0.988798261556353        -5321.344106977678
0.45999999999999996       0.004166666666666668     -20.393895632445556      0.13831658185163972      -0.16241162896042535     0.9886909712721703       -4386.61229231377
0.4399999999999998        0                        0                        0                        -0.16072937339718874     0.989648376382383        -3979.6000558527903
0.43999999999999984       0.004166666666666669     -15.781793654909752      0.9145795700487691       -0.1607666995878697      0.9897050759792121       -3582.0749997458
0.4199999999999997        0                        0                        0                        -0.15907843068629052     0.9903159484772142       -1968.2580120540229
0.4199999999999997        0.0041666666666666675    -8.474108607564371       0.5824043338845122       -0.159108037184086       0.9905562832706383       -2155.392740265948
0.39999999999999963       0                        0                        0                        -0.15782119531504776     0.9908565494480477       -1362.6370094788977
0.3999999999999996        0.0041666666666666675    -6.037397190068938       0.045195830971141375     -0.15784335063915864     0.9910721761278729       -1551.9349122986139
0.37999999999999956       0                        0                        0                        -0.15696548503487473     0.9913902431481469       -1717.510554806191
0.37999999999999945       0.0041666666666666675    -7.21497629399063        -0.16585639711769518     -0.15698241425366988     0.9915357528685964       -1749.767335818627
0.3599999999999995        0                        0                        0                        -0.1563858140383512      0.9918917591293238       -2333.3869636701265
0.35999999999999954       0.0041666666666666675    -9.507107598841925       -0.20597090565891973     -0.1563984660998827      0.9919880676954602       -2228.970407162987
0.3399999999999994        0                        0                        0                        -0.15598460994627866     0.9923588456574357       -2976.323643658924
0.33999999999999947       0.004166666666666667     -11.972599875442514      -0.17771552574718863     -0.15599367560845695     0.9924037403411332       -2767.8836916567143
0.31999999999999934       0                        0                        0                        -0.15569701138168893     0.9928350106271224       -3550.054034369098
0.31999999999999934       0.0041666666666666675    -14.200014848575664      -0.12495650499613285     -0.15570340977151956     0.992777754929135        -3261.2730203398746
0.29999999999999927       0                        0                        0                        -0.15547158012655823     0.9933657572787462       -4041.242812754169
0.29999999999999927       0.004166666666666668     -16.103433253114193      -0.09058521931715145     -0.15547657872264564     0.9931451194897034       -3687.682483721588
0.2799999999999992        0                        0                        0                        -0.15525539517359638     0.9939265604176473       -4608.634205029761
0.27999999999999914       0.0041666666666666675    -18.225924330138568      -0.1379272716946038      -0.1552607465069044      0.9935693705441317       -4146.339906096783
0.2599999999999991        0                        0                        0                        -0.15498051049630202     0.9944157991118856       -5351.296797621729
0.2599999999999991        0.004166666666666668     -20.920934986909632      -0.11130744399946005     -0.15498860319907165     0.9940745196227905       -4684.023797129954
0.23999999999999905       0                        0                        0                        -0.15455228003144622     0.9947511737497803       -5790.642040649343
0.23999999999999913       0.004166666666666668     -22.483591208580428      0.20547168287630055      -0.15456568228821463     0.9945702007806241       -4973.261352185428
0.21999999999999897       0                        0                        0                        -0.1538648915388366      0.9950014686917856       -5218.795472132564
0.21999999999999903       0.0041666666666666675    -20.326370371567013      0.670397754208005        -0.15388380487985023     0.9949369326713193       -4510.275596724575
0.1999999999999989        0                        0                        0                        -0.15289276927797454     0.9953577852826871       -3647.7822003676856
0.1999999999999989        0.0041666666666666675    -14.427555960058685      0.8689306418519772       -0.15291224254649788     0.9953116185658983       -3275.8909620911345
0.17999999999999883       0                        0                        0                        -0.15178594537659876     0.9956977507172775       -1906.435847308002
0.17999999999999894       0.0041666666666666675    -7.816005125947884       0.7010193643813807       -0.15180040429447733     0.9957398158344908       -1869.175610654489
0.15999999999999875       0                        0                        0                        -0.15076422307316695     0.9958545399425622       -845.8569206622104
0.15999999999999875       0.0041666666666666675    -3.642950283340758       0.3098880175220771       -0.15077342908066294     0.9959719792856903       -928.2223386099422
0.13999999999999868       0                        0                        0                        -0.1499264666164499      0.9958572093904416       -630.156073739195
0.13999999999999868       0.0041666666666666675    -2.5723646925133306      0.05815802518028016      -0.14993267494347656     0.9959954264348998       -609.6058737927563
0.11999999999999861       0                        0                        0                        -0.149250700089488       0.9958096867424368       -647.0698128148525
0.11999999999999865       0.0041666666666666675    -2.4751339917862247      0.10854347019540919      -0.1492551506273167      0.9959162833295601       -522.2555568182689
0.09999999999999853       0                        0                        0                        -0.14869677392442823     0.9958854107962603       -180.74928237238407
0.09999999999999858       0.0041666666666666675    -0.8542904914768603      0.2810207959816201       -0.14869976486536823     0.9959712123983017       -218.85785991686046
0.07999999999999846       0                        0                        0                        -0.1482537966947408      0.9962669924253411       503.45190973238175
0.07999999999999849       0.0041666666666666675    1.4654702851395582       0.0873548199506719       -0.1482556896499781      0.9964911863564223       163.97045165298135
0.05999999999999839       0                        0                        0                        -0.14792308259930503     0.9966453422013117       395.6993199532877
0.05999999999999845       0.0041666666666666675    1.184609706695239        -0.23066511744018847     -0.14792440806671472     0.9970933193910075       147.43211231061275
0.039999999999998315      0                        0                        0                        -0.14769555196543382     0.9964128337317428       -647.2157819431385
0.03999999999999836       0.0041666666666666675    -2.163824548164906       -0.31145915069655566     -0.1476965629098599      0.9969513671116981       -374.26894321311084
0.01999999999999824       0                        0                        0                        -0.14755858623210572     0.9956145552716783       -1376.78192753439
0.019999999999998293      0.0041666666666666675    -4.507282177229791       0.7088587259883431       -0.14755923841653212     0.995761354010553        -679.774765664191
0                         0                        0                        0                        -0.1475111002216483      0.9954828866575969       -113.32585129020046
0                         0.0041666666666666675    -0.1591286022020286      1.2559998826775651       -0.1475114836031806      0.99549327385301         -17.464551360201227
0.4799999999999999        0.009848484848484874     -35.13538255112696       -3.0685378665801344      -0.1636780931870853      0.9878186869137159       -2727.236013108305
0.5                       0.009848484848484869     -22.197264828859428      -3.181910965534472       -0.16444674979169774     0.9892643494699309       -2129.842830015596
0                         0.00984848484848485      -0.05216093712190392     6.5922174883471385       -0.14751318476913633     0.9955317581342736       9.641235153004905
0.019999999999998363      0.00984848484848485      -7.349568035984043       2.96421625051098         -0.14756181706545934     0.996377198590306        162.1172599281834
0.4799999999999998        0.01704545454545457      -52.30670599810494       -7.663303533952769       -0.16373525692669474     0.9954461631288842       -1931.9438697767855
0.5                       0.017045454545454548     -36.34649846616444       -8.243224151166613       -0.1644099197675496      0.9932847206405546       -1886.2536280700083
0                         0.017045454545454544     0.041604464657814554     15.126698378511405       -0.1475170324156681      0.9955766688013689       66.69925763155771
0.019999999999998446      0.017045454545454544     -7.619310769312843       6.378225302737721        -0.14756715914181223     0.9975627971068061       970.916157986488
0.4800000000000001        0.025757575757575753     -68.05245330084828       -11.778310570335702      -0.1637309831636018      0.9923853734094368       -1321.7250980415993
0.5                       0.025757575757575733     -51.67091713099386       -15.17227143440083       -0.16427288958210767     0.9967199276827411       -1781.9903082469418
0                         0.025757575757575746     0.06738331985290957      24.63506355443664        -0.1475238013646873      0.9955383754152755       174.35116114311967
0.019999999999998543      0.025757575757575736     -5.960779716269837       9.947739920278941        -0.14757610544268618     0.9987767945539019       1521.245003971334
0.48000000000000004       0.03598484848484851      -82.12419091071683       -17.70088821272573       -0.16356046940683616     0.9971539097133368       -546.6017919407515
0.5                       0.035984848484848474     -68.19184335165538       -21.91647920040877       -0.16394116837464406     0.9924117112530756       -1649.8698010548424
0                         0.035984848484848474     0.041900023477240124     32.62345251092037        -0.14753417535810162     0.9954353979447446       310.88149678505346
0.019999999999998665      0.03598484848484847      -4.07964822156435        13.21152419353152        -0.14758941406674042     0.9993297916999534       1738.1872228322175
0.48000000000000004       0.04772727272727274      -95.96435885934714       -21.927024898956464      -0.1631249598948153      0.996473061460123        -485.9897396226727
0.5                       0.04772727272727269      -83.91176558572046       -30.704974144355358      -0.16332256543622936     0.9972952811197606       -737.1074030874207
0                         0.047727272727272715     0.013687443420325029     38.08493322276094        -0.1475484015784414      0.9953867014607223       392.5702763231289
0.0199999999999988        0.047727272727272715     -3.0757770215017897      16.55338406280871        -0.14760704661196977     0.9992882353480997       1766.5119770071665
0.4799999999999999        0.0609848484848485       -107.70466305384264      -21.796914883360742      -0.16238574120480712     0.9915701923265436       539.9052154583902
0.5                       0.06098484848484845      -97.38032349135136       -36.263484737844905      -0.1623756456170353      0.9948255519106354       -851.3681515800045
0                         0.06098484848484848      -2.1240662737742762E-4   41.988769803447674       -0.14756556984889133     0.9954105846719437       396.70085074905415
0.019999999999998963      0.06098484848484846      -2.832441730115885       20.43101449727808        -0.1476273226681868      0.9989685022901236       1748.2672026106125
0.4800000000000001        0.07575757575757577      -112.96277749451933      -24.234903251519146      -0.16141127352851403     0.9965214879271467       1404.1332830622155
0.5                       0.07575757575757569      -106.68912096346517      -39.685511891499175      -0.16114937637469579     0.9980074668644496       -334.82971231051
0                         0.07575757575757573      -0.0024087333991637413   45.621859618102874       -0.14758316924366485     0.9954693488621288       359.07465984547855
0.019999999999999133      0.07575757575757572      -2.7341107219689147      24.829238070485523       -0.14764681138242458     0.9985747352450709       1747.4184777008932
0.4799999999999999        0.09204545454545453      -107.68276448507497      -23.259025044057516      -0.16041907618659168     0.9954245888366519       2279.13382834907
0.5                       0.09204545454545446      -107.18726780558666      -36.47615987112499       -0.1598258271986051      0.9961565236690735       -228.0272963207076
0                         0.09204545454545454      -1.4961913467301726E-4   49.34597599681841        -0.14759742208570187     0.9955208821421051       315.9822130646661
0.01999999999999932       0.0920454545454545       -2.328084990403933       29.19111246690479        -0.14766106248312327     0.9982419662365809       1773.3799016414434
0.4800000000000001        0.10984848484848486      -93.49745675539575       -20.186494757435437      -0.1597047632849709      0.998339708593187        2442.3980271328555
0.5                       0.10984848484848476      -96.65852610434673       -30.91016396930963       -0.15872218847384678     0.9975170667061615       663.6469307903008
0                         0.10984848484848486      3.8453376679291573E-4    52.68278372162851        -0.147603972531708       0.9955244779635439       294.42801634174805
0.01999999999999953       0.10984848484848489      -1.5447786466923379      32.675324366216586       -0.14766551942936765     0.9980948614505034       1798.957405088633
0.4800000000000001        0.12916666666666668      -68.03961104947435       -11.820287919209363      -0.15950509981592306     0.9982427557202318       3159.5549785621643
0.5                       0.12916666666666657      -73.67673062353536       -24.97177496364175       -0.15821046522811788     0.9986358754124605       1363.1660282761495
0                         0.12916666666666665      -0.004155279424382022    54.93980865404743        -0.1475980758292294      0.9954568177133651       312.87176714965744
0.01999999999999975       0.12916666666666662      -0.6620698199055345      34.683433982699874       -0.14765572250730186     0.9982501509235339       1776.259317845135
0.4800000000000001        0.14999999999999997      -28.876636324817014      3.437652256014807        -0.15979601963859008     0.9961245990368337       4336.920571548289
0.5                       0.14999999999999986      -41.40273627910276       -18.715963731472726      -0.15844742016202115     0.9982617502321218       1823.6116145997585
0.45999999999999996       0.1291666666666667       -58.53338687686262       32.657339180621136       -0.16069922494325392     0.9929376731428352       4450.5293742731055
0.4600000000000001        0.14999999999999997      -18.183495423337995      41.14636224613174        -0.1607135113389432      0.9884390562235211       3020.811137075899
0.43999999999999984       0.12916666666666662      -55.603917865688956      55.79962926794817        -0.1613348092599373      0.9942847082426862       1820.616856674104
0.44000000000000006       0.14999999999999997      -20.918943529117485      55.310234274945664       -0.16096802425802392     0.992198022776219        2706.740690120175
0.42                      0.12916666666666665      -58.69122664914381       67.68596346446553        -0.16113849507080058     0.9935465634902736       1936.9031926760617
0.42000000000000004       0.14999999999999997      -30.745375309453784      60.05828611883733        -0.16045105619327485     0.9902550319178385       282.545319970671
0.3999999999999999        0.12916666666666665      -69.40613710286935       46.98546270291601        -0.1601686861210847      0.9941364837682515       -1195.419414801128
0.4                       0.14999999999999997      -47.15002432365386       36.129379161978015       -0.1592703576460773      0.9974605383385737       115.63936904783077
0.3799999999999999        0.12916666666666665      -75.69337906743085       18.228210121149555       -0.15873414890188775     0.9959536521710082       228.44971529621668
0.38                      0.14999999999999997      -51.61318867463903       23.05514342274113        -0.15778694072979424     0.9948183682453234       699.9812893856796
0.35999999999999993       0.1291666666666666       -72.55065198075721       7.057551470422167        -0.15725393070201107     0.9973407299840867       851.5134983124691
0.36                      0.14999999999999997      -45.4967181322586        19.409054998905038       -0.15640541838623767     0.996431601815355        1800.8067292938522
0.3399999999999998        0.12916666666666665      -62.73932594652968       12.118494580167306       -0.15606917310245372     0.9962481759168774       2066.269293320196
0.33999999999999997       0.14999999999999997      -32.623241475897835      28.982025125101337       -0.15539382699177928     0.9941508701361745       1946.8326030093117
0.3199999999999999        0.12916666666666665      -51.107014336565996      24.50332103448009        -0.1552996048020074      0.9949723829363516       1941.8119566255868
0.31999999999999995       0.14999999999999997      -22.104339316484964      33.38721800841255        -0.15477451676272685     0.9985362335287344       1695.8950179032076
0.2999999999999998        0.12916666666666665      -43.443269242702726      35.313147594528935       -0.15487147907043441     0.9977206658940846       2165.687012832639
0.29999999999999993       0.14999999999999997      -13.303176720407384      44.34846386902165        -0.15443608665790806     0.9957566408863814       1893.0299217887148
0.27999999999999986       0.12916666666666665      -36.086868462687626      46.27676298721653        -0.15463001534754894     0.9949646534372203       1657.7751674536926
0.2799999999999999        0.14999999999999997      -8.088704180983125       48.66088184208746        -0.15422183412306428     0.999389617425728        1537.6051489341412
0.25999999999999984       0.12916666666666665      -30.53475853022116       54.29720818467673        -0.1544443746628321      0.9954211335376875       1920.4926404617195
0.2599999999999999        0.14999999999999997      -2.9097973128342898      58.537071830817005       -0.154036478569527       0.9975891373699043       1989.1112753646846
0.2399999999999997        0.12916666666666662      -24.844074284867137      65.84766999345564        -0.15422366288690076     0.9965474054871939       1760.5837757594768
0.2399999999999999        0.14999999999999997      2.424244272026345        72.83382308099898        -0.1538162026660488      0.9961844158861397       2177.6540067998944
0.21999999999999978       0.12916666666666665      -17.477476195888322      85.13342535736405        -0.15389273781952428     0.9972750049162444       2928.639557192066
0.21999999999999992       0.14999999999999997      7.014843855594817        92.81848568538858        -0.15350354936791252     0.9941059199327635       1974.1571938454892
0.1999999999999998        0.12916666666666662      -13.971676480623493      113.33429055433442       -0.15339857831829326     0.9938393499253194       2149.6331527163898
0.19999999999999993       0.14999999999999997      2.7862052066006266       106.12706700037921       -0.1530553960318562      0.9957345476688289       847.0765639153606
0.1799999999999998        0.12916666666666668      -21.46037586329955       120.49359046577639       -0.1527196802173595      0.9947604573572599       571.6897356523656
0.17999999999999994       0.14999999999999997      -8.02627324431372        111.7025727364887        -0.1524599360936103      0.9963804067542982       865.9051181399129
0.15999999999999975       0.1291666666666666       -24.712274650292876      104.7051477662848        -0.1518776482550913      0.9954265974689378       -1074.0430729285013
0.15999999999999995       0.14999999999999997      -14.185002650481989      107.80524451604013       -0.15170277094016793     0.9950524318309399       -395.35428632165
0.1399999999999998        0.12916666666666665      -19.187569016524094      68.49070282029795        -0.15094205465062122     0.9985280006295789       -1614.8801657694078
0.13999999999999996       0.14999999999999997      -12.772334966894846      75.98055459872081        -0.1508112259597837      0.9982323605835064       -1621.6142916506303
0.11999999999999979       0.12916666666666665      -13.603885735940224      44.35622707150227        -0.15003691793733567     0.9989470001014848       -364.6947366345613
0.11999999999999997       0.14999999999999997      -8.801542814033956       51.183618696360845       -0.14992168276471157     0.9990145531344473       -401.64736067369904
0.09999999999999976       0.12916666666666665      -9.140052410683388       38.18391515373425        -0.14925173531970806     0.9987484960614135       223.610872696586
0.09999999999999998       0.14999999999999997      -4.244591655445209       44.034570421806514       -0.14915026942704443     0.9988169755067964       116.08130806497604
0.07999999999999978       0.12916666666666665      -5.065949475495199       39.014186934069436       -0.14862234137764951     0.9985801489474595       382.91345893467576
0.07999999999999999       0.14999999999999997      -0.8105139901462722      43.014131133863394       -0.1485414169453369      0.9983213872705943       139.7768538409469
0.059999999999999776      0.12916666666666665      -2.409591759450903       33.639262553973175       -0.14815362204872926     0.9983603746353944       -669.8790361082966
0.06                      0.14999999999999997      -0.5297588107080248      34.06132080659993        -0.1480952755240777      0.9989777710013297       -861.5729846611011
0.039999999999999765      0.12916666666666662      -1.556878813078825       19.380689483229794       -0.14783596693725023     1.0010738068333433       -305.894023450499
0.04                      0.14999999999999997      -0.9065334950408875      20.951886822024345       -0.14779453351593175     1.0008870390798537       -260.73199072786616
0.02                      0.14999999999999997      -0.04955593845255642     35.41346137087537        -0.14762597043289785     0.9986781649136502       1671.7245747362822
0                         0.15                     -0.011989730540062069    55.77115791803627        -0.14757358053071182     0.9953568550586346       366.2377534464784
0.45999999999999985       0.009848484848484872     -42.79817462307946       0.4498158816549266       -0.16252558968927033     0.9883065230356308       -3117.492130505079
0.43999999999999984       0.009848484848484872     -34.98194071279244       4.722798400225241        -0.16091003787236696     0.9899334690404882       -3092.1921899237086
0.41999999999999976       0.009848484848484872     -20.828483903895965      3.0514583167486635       -0.15923068543559868     0.9916981966441587       -2454.742565335958
0.3999999999999996        0.00984848484848487      -15.290008525149076      0.28411342290646613      -0.15793830418512078     0.9924352584752087       -1805.0474794984539
0.3799999999999996        0.009848484848484867     -17.133595264913307      -0.7890097828862916      -0.15705501457500673     0.9927167631204723       -1767.8888064817916
0.3599999999999996        0.009848484848484872     -21.70488855094727       -1.0383874049200073      -0.156452135763523       0.9929751287745907       -2060.618141191202
0.3399999999999995        0.009848484848484867     -26.87333291586618       -0.9065829163753956      -0.1560314609016693      0.9932571624732047       -2462.7627635150525
0.3199999999999994        0.009848484848484869     -31.634134448253015      -0.6123405505371031      -0.15572939285877765     0.9934845979900486       -2852.933859325635
0.2999999999999993        0.009848484848484867     -35.659299318547035      -0.3803829523929987      -0.15549612121000222     0.9935498024102758       -3192.465821340648
0.2799999999999992        0.009848484848484863     -39.86528315640495       -0.56679139583283        -0.15528084544040077     0.9933894825824247       -3495.1277730073516
0.25999999999999907       0.009848484848484863     -45.017166817234305      -0.48136687703064746     -0.15501829363917388     0.9932677110696833       -3752.533810599508
0.2399999999999991        0.009848484848484862     -48.02214929104426       0.994947345690645        -0.15461448574157924     0.9937554261992383       -3869.169878651314
0.219999999999999         0.009848484848484862     -43.74485082460983       3.454596140027981        -0.15395340116819933     0.9946696305812948       -3598.971439001984
0.19999999999999896       0.00984848484848486      -31.75497745572508       4.578910025151455        -0.15298620819876638     0.9952217760169784       -2814.9414920595964
0.1799999999999989        0.00984848484848486      -18.046933576868046      3.7115231581141748       -0.15185814658088484     0.9958724739509994       -1851.653456458872
0.15999999999999887       0.009848484848484858     -8.944622659349935       1.6878792537427376       -0.15081207435857324     0.9964067731183796       -1069.5900718635714
0.13999999999999876       0.00984848484848486      -5.939473171844546       0.34325120530184017      -0.14995913739268685     0.9965565994200354       -610.3865802749019
0.11999999999999869       0.009848484848484855     -5.237746862816663       0.5438667685168698       -0.14927405047927095     0.9963679944050144       -375.38150880513854
0.09999999999999862       0.009848484848484853     -2.3614922008958037      1.4298434071602923       -0.1487129987639427      0.9963084307470944       -271.7555559158328
0.07999999999999856       0.009848484848484853     1.5761324628389208       0.5472714082712978       -0.1482648032334081      0.9973213272398571       -274.4408270241606
0.059999999999998485      0.00984848484848485      1.3729980287907213       -1.1097586009653078      -0.14793073069595564     0.9987762460452952       -183.560255126769
0.039999999999998426      0.00984848484848485      -3.6638886069211996      -1.5442309367316553      -0.14770081411093972     0.9990231336195781       -83.55198039030589
0.45999999999999985       0.017045454545454565     -63.206258248829336      0.5236314994519826       -0.1627128672756537      0.9881506287306161       -1429.485249733159
0.4399999999999997        0.017045454545454558     -56.00475051146805       11.419693196854983       -0.1611789790829676      0.9900373791088425       -2449.3659066052364
0.41999999999999965       0.017045454545454555     -37.311917847561084      8.418132451366493        -0.1594862148280315      0.9935195072314182       -2809.01811346889
0.39999999999999963       0.017045454545454558     -28.106448658223705      1.2120993385289702       -0.15814608299379995     0.9952145937113408       -2093.074479145083
0.37999999999999967       0.017045454545454558     -29.518370295318398      -1.8881036331298593      -0.15721533166047325     0.9955055937106378       -1778.9755249700058
0.3599999999999995        0.01704545454545456      -35.7299532692102        -2.746042923441112       -0.15656955866575376     0.9955266554519735       -1835.6363255399851
0.3399999999999996        0.017045454545454555     -43.32787944813018       -2.487087184926946       -0.15611232962027513     0.9955831516409545       -2067.281777812159
0.3199999999999994        0.01704545454545455      -50.565641849856824      -1.7327176151355133      -0.15578288193230594     0.995740368381771        -2339.702921656886
0.2999999999999993        0.017045454545454555     -56.53547933482691       -0.9476861475684731      -0.15553376457860052     0.9959014740020996       -2593.7731305528587
0.27999999999999925       0.017045454545454558     -62.025177579399255      -1.2596908480366262      -0.1553166154666006      0.9958141239487868       -2733.6304679026275
0.2599999999999993        0.017045454545454555     -68.42769149637581       -0.9868106585530356      -0.1550689969403245      0.9949497552949678       -2636.660895752342